 Gaussian 16, Revision C.02,
 Gaussian 16:  ES64L-G16RevC.02  7-Dec-2021

 ------------------------------------------------------------
 # td=(50-50,nstates=6) b3lyp/6-311++g(d,p) geom=connectivity
 ------------------------------------------------------------

 -------------------
 Title Card Required
 -------------------
 Symbolic Z-matrix:
 Charge =  0 Multiplicity = 1

                         Standard orientation:
 ---------------------------------------------------------------------
 Center     Atomic      Atomic             Coordinates (Angstroms)
 Number     Number       Type             X           Y           Z
 ---------------------------------------------------------------------
      1          6           0        0.381484   -0.406763   -0.394590
      2          6           0        1.042844   -0.142090   -1.634690
      3          1           0        1.051504    0.785616   -2.182361
      4          6           0        1.661399   -1.296600   -1.991766
      5          6           0        0.676258   -1.834082   -0.062170
      6          8           0        0.349603   -2.510962    0.863520
      7          8           0        1.476657   -2.327395   -1.097328
      8          6           0       -0.381484    0.406763    0.394590
      9          6           0       -1.042844    0.142090    1.634690
     10          1           0       -1.051504   -0.785616    2.182361
     11          6           0       -1.661399    1.296600    1.991766
     12          6           0       -0.676258    1.834082    0.062170
     13          8           0       -0.349603    2.510962   -0.863520
     14          8           0       -1.476657    2.327395    1.097328
     15          6           0       -2.451215    1.575473    3.131451
     16          7           0       -3.094118    1.785297    4.068148
     17          6           0        2.451215   -1.575473   -3.131451
     18          7           0        3.094118   -1.785297   -4.068148
 ---------------------------------------------------------------------

 SCF Done:  E(RB3LYP) =  -792.803340921     A.U. after   15 cycles

 Excitation energies and oscillator strengths:

 Excited State   1:      Triplet-AU     0.8685 eV 1427.57 nm  f=0.0000  <S**2>=2.000
      54 -> 55         0.74336
      54 <- 55         0.25621
 This state for optimization and/or second-order correction.
 Total Energy, E(TD-HF/TD-DFT) =  -792.771424295
 Copying the excited state density for this state as the 1-particle RhoCI density.

 Excited State   2:      Singlet-AU     2.7242 eV  455.12 nm  f=0.5541  <S**2>=0.000
      54 -> 55         0.71269
      54 <- 55        -0.14727

 Excited State   3:      Triplet-AG     2.7552 eV  450.00 nm  f=0.0000  <S**2>=2.000
      53 -> 55         0.66046
      54 -> 56         0.23158

 Excited State   4:      Triplet-AG     2.9628 eV  418.48 nm  f=0.0000  <S**2>=2.000
      52 -> 55         0.69405

 Excited State   5:      Singlet-AG     3.2433 eV  382.28 nm  f=0.0000  <S**2>=0.000
      52 -> 55         0.70238

 Excited State   6:      Triplet-AU     3.3406 eV  371.14 nm  f=0.0000  <S**2>=2.000
      51 -> 55         0.68875
      51 -> 57        -0.10293
      52 -> 60        -0.10631

 Excited State   7:      Singlet-AG     3.4544 eV  358.92 nm  f=0.0000  <S**2>=0.000
      53 -> 55         0.69346
      54 -> 56        -0.10809

 Excited State   8:      Singlet-AU     3.6267 eV  341.87 nm  f=0.0000  <S**2>=0.000
      51 -> 55         0.70010

 Excited State   9:      Triplet-AU     3.7674 eV  329.10 nm  f=0.0000  <S**2>=2.000
      46 -> 55         0.20517
      50 -> 55        -0.36731
      53 -> 56         0.22184
      54 -> 57         0.50518

 Excited State  10:      Triplet-AG     3.8969 eV  318.16 nm  f=0.0000  <S**2>=2.000
      48 -> 55         0.23332
      53 -> 55        -0.23816
      53 -> 57         0.19332
      54 -> 56         0.57803

 Excited State  11:      Singlet-AG     4.8585 eV  255.19 nm  f=0.0000  <S**2>=0.000
      49 -> 55         0.69806

 Excited State  12:      Singlet-AU     4.9474 eV  250.60 nm  f=0.0001  <S**2>=0.000
      47 -> 55         0.69646

 The electronic state is 1-AG.
 Alpha  occ. eigenvalues --  -19.24316 -19.24316 -19.18342 -19.18342 -14.37152
 Alpha  occ. eigenvalues --  -14.37151 -10.36835 -10.36835 -10.33513 -10.33513
 Alpha  occ. eigenvalues --  -10.27858 -10.27792 -10.26285 -10.26285 -10.25385
 Alpha  occ. eigenvalues --  -10.25385  -1.18694  -1.18606  -1.11003  -1.10977
 Alpha  occ. eigenvalues --   -0.96391  -0.96389  -0.92053  -0.87505  -0.83484
 Alpha  occ. eigenvalues --   -0.80667  -0.72640  -0.68782  -0.65044  -0.64957
 Alpha  occ. eigenvalues --   -0.62615  -0.58339  -0.54551  -0.53659  -0.53515
 Alpha  occ. eigenvalues --   -0.52574  -0.50883  -0.49964  -0.48684  -0.46361
 Alpha  occ. eigenvalues --   -0.44742  -0.44668  -0.44624  -0.41686  -0.41638
 Alpha  occ. eigenvalues --   -0.40686  -0.39666  -0.39411  -0.39368  -0.39234
 Alpha  occ. eigenvalues --   -0.35686  -0.34263  -0.33777  -0.28049
 Alpha virt. eigenvalues --   -0.18387  -0.08066  -0.07405  -0.04153  -0.03956
 Alpha virt. eigenvalues --   -0.02955  -0.02138  -0.00751   0.00982   0.01215
 Alpha virt. eigenvalues --    0.01641   0.02912   0.03579   0.04316   0.04427

 Mulliken charges:
               1
     1  C    0.608981
     2  C    0.178557
     3  H    0.258144
     4  C    0.890772
     5  C   -0.089312
     6  O   -0.266567
     7  O   -0.042321
     8  C    0.608981
     9  C    0.178557
    10  H    0.258144
    11  C    0.890772
    12  C   -0.089312
    13  O   -0.266567
    14  O   -0.042321
    15  C   -1.395363
    16  N   -0.142891
    17  C   -1.395363
    18  N   -0.142891
 Sum of Mulliken charges =  -0.00000

 Dipole moment (field-independent basis, Debye):
    X=              0.0000    Y=              0.0000    Z=             -0.0000  Tot=              0.0000
 Quadrupole moment (field-independent basis, Debye-Ang):
   XX=            -99.6548   YY=           -105.8554   ZZ=           -109.4648
   XY=             10.6739   XZ=             16.4516   YZ=             -6.1506

 Normal termination of Gaussian 16 at Sat Sep 20 15:12:39 2025.
