 Gaussian 16, Revision C.02,
 Gaussian 16:  ES64L-G16RevC.02  7-Dec-2021

 ------------------------------------------------------------
 # td=(50-50,nstates=6) b3lyp/6-311++g(d,p) geom=connectivity
 ------------------------------------------------------------

 -------------------
 Title Card Required
 -------------------
 Symbolic Z-matrix:
 Charge =  0 Multiplicity = 1

                         Standard orientation:
 ---------------------------------------------------------------------
 Center     Atomic      Atomic             Coordinates (Angstroms)
 Number     Number       Type             X           Y           Z
 ---------------------------------------------------------------------
      1          6           0        1.282647    0.123337   -0.000012
      2          6           0        2.277586    1.154873    0.000035
      3          1           0        2.103086    2.217651    0.000041
      4          6           0        3.475622    0.530569    0.000600
      5          1           0        4.479228    0.926979    0.000848
      6          6           0        2.036488   -1.170717   -0.000064
      7          8           0        1.660126   -2.303383   -0.000515
      8          8           0        3.393545   -0.837369    0.000241
      9          6           0       -0.080385    0.194395   -0.000104
     10          6           0       -1.066463   -0.845934   -0.000358
     11          1           0       -0.889347   -1.908522   -0.000684
     12          6           0       -2.273578   -0.229418    0.000109
     13          6           0       -0.834115    1.481027   -0.000175
     14          8           0       -0.462621    2.615967   -0.000195
     15          8           0       -2.192777    1.148144   -0.000271
     16          6           0       -3.570811   -0.792927    0.000328
     17          7           0       -4.623011   -1.270601    0.000509
 ---------------------------------------------------------------------

 SCF Done:  E(RB3LYP) =  -700.547502536     A.U. after   15 cycles

 Excitation energies and oscillator strengths:

 Excited State   1:      Triplet-A      0.9813 eV 1263.47 nm  f=0.0000  <S**2>=2.000
      48 -> 49         0.73564
      48 <- 49         0.23230
 This state for optimization and/or second-order correction.
 Total Energy, E(TD-HF/TD-DFT) =  -700.511440559
 Copying the excited state density for this state as the 1-particle RhoCI density.

 Excited State   2:      Singlet-A      2.8305 eV  438.03 nm  f=0.4147  <S**2>=0.000
      48 -> 49         0.70925
      48 <- 49        -0.14032

 Excited State   3:      Triplet-A      2.8892 eV  429.13 nm  f=0.0000  <S**2>=2.000
      47 -> 49         0.66635
      48 -> 50        -0.19132

 Excited State   4:      Triplet-A      3.0600 eV  405.18 nm  f=0.0000  <S**2>=2.000
      45 -> 49         0.10449
      46 -> 49         0.68670

 Excited State   5:      Singlet-A      3.3614 eV  368.84 nm  f=0.0000  <S**2>=0.000
      46 -> 49         0.69951

 Excited State   6:      Triplet-A      3.4566 eV  358.69 nm  f=0.0000  <S**2>=2.000
      45 -> 49         0.68107
      46 -> 49        -0.10290
      46 -> 54         0.11147

 Excited State   7:      Singlet-A      3.5536 eV  348.90 nm  f=0.0017  <S**2>=0.000
      47 -> 49         0.69742

 Excited State   8:      Singlet-A      3.7601 eV  329.74 nm  f=0.0001  <S**2>=0.000
      45 -> 49         0.69709

 Excited State   9:      Triplet-A      3.8093 eV  325.48 nm  f=0.0000  <S**2>=2.000
      42 -> 49        -0.17375
      44 -> 49         0.27703
      47 -> 49         0.17994
      47 -> 50         0.20017
      48 -> 50         0.54736

 Excited State  10:      Triplet-A      4.4011 eV  281.71 nm  f=0.0000  <S**2>=2.000
      40 -> 49        -0.23384
      42 -> 49         0.37044
      44 -> 49        -0.12717
      47 -> 49         0.13002
      47 -> 52        -0.19032
      48 -> 50         0.19601
      48 -> 52         0.42508

 Excited State  11:      Singlet-A      4.9205 eV  251.98 nm  f=0.0681  <S**2>=0.000
      44 -> 49        -0.28799
      48 -> 50         0.63159

 Excited State  12:      Singlet-A      5.1147 eV  242.41 nm  f=0.0001  <S**2>=0.000
      43 -> 49         0.69542
      43 -> 50        -0.10325

 The electronic state is 1-A.
 Alpha  occ. eigenvalues --  -19.22667 -19.22577 -19.17109 -19.16545 -14.35699
 Alpha  occ. eigenvalues --  -10.35370 -10.35108 -10.31650 -10.29399 -10.26204
 Alpha  occ. eigenvalues --  -10.25836 -10.24951 -10.23851 -10.22504  -1.16974
 Alpha  occ. eigenvalues --   -1.16874  -1.09504  -1.09175  -0.95011  -0.90167
 Alpha  occ. eigenvalues --   -0.85353  -0.80905  -0.77025  -0.70092  -0.66566
 Alpha  occ. eigenvalues --   -0.63303  -0.60945  -0.58880  -0.54897  -0.52760
 Alpha  occ. eigenvalues --   -0.51642  -0.51464  -0.50632  -0.48365  -0.48245
 Alpha  occ. eigenvalues --   -0.46244  -0.44459  -0.43067  -0.42822  -0.41324
 Alpha  occ. eigenvalues --   -0.40378  -0.38903  -0.38165  -0.37850  -0.34189
 Alpha  occ. eigenvalues --   -0.32662  -0.32132  -0.26400
 Alpha virt. eigenvalues --   -0.16192  -0.06245  -0.02745  -0.02618  -0.01638
 Alpha virt. eigenvalues --   -0.01392  -0.00629   0.01223   0.01366   0.02581
 Alpha virt. eigenvalues --    0.03066   0.04557   0.04585   0.04925   0.06433

 Mulliken charges:
               1
     1  C    0.144267
     2  C    0.062015
     3  H    0.224008
     4  C   -0.295022
     5  H    0.232105
     6  C   -0.126968
     7  O   -0.263737
     8  O   -0.054426
     9  C    0.700031
    10  C    0.346333
    11  H    0.256267
    12  C    0.732713
    13  C   -0.091505
    14  O   -0.283482
    15  O   -0.047951
    16  C   -1.372845
    17  N   -0.161804
 Sum of Mulliken charges =  -0.00000

 Dipole moment (field-independent basis, Debye):
    X=              4.7216    Y=              1.2340    Z=              0.0007  Tot=              4.8802
 Quadrupole moment (field-independent basis, Debye-Ang):
   XX=            -87.9459   YY=            -90.7640   ZZ=            -76.6780
   XY=              6.8577   XZ=              0.0057   YZ=              0.0014

 Normal termination of Gaussian 16 at Sat Sep 20 15:09:44 2025.
