 Gaussian 16, Revision C.02,
 Gaussian 16:  ES64L-G16RevC.02  7-Dec-2021

 ------------------------------------------------------------
 # td=(50-50,nstates=6) b3lyp/6-311++g(d,p) geom=connectivity
 ------------------------------------------------------------

 -------------------
 Title Card Required
 -------------------
 Symbolic Z-matrix:
 Charge =  0 Multiplicity = 1

                         Standard orientation:
 ---------------------------------------------------------------------
 Center     Atomic      Atomic             Coordinates (Angstroms)
 Number     Number       Type             X           Y           Z
 ---------------------------------------------------------------------
      1          6           0       -1.744420    0.137511    0.000103
      2          6           0       -2.793700    1.124753    0.012371
      3          1           0       -2.672024    2.194969    0.008596
      4          6           0       -3.958193    0.446681    0.027866
      5          6           0       -2.416984   -1.175109    0.011382
      6          8           0       -1.980471   -2.297432    0.008985
      7          8           0       -3.790667   -0.921144    0.027962
      8          6           0       -0.376921    0.267252   -0.018583
      9          6           0        0.648464   -0.711561   -0.020850
     10          1           0        0.497908   -1.775944    0.002848
     11          6           0        1.851945   -0.037960   -0.041079
     12          6           0        0.305562    1.588277   -0.029096
     13          8           0       -0.098661    2.710335   -0.029527
     14          8           0        1.693589    1.324679   -0.039058
     15          1           0       -4.982407    0.783064    0.039720
     16          7           0        3.117145   -0.484573   -0.086085
     17          6           0        3.356947   -1.921954   -0.035540
     18          1           0        4.343276   -2.126440   -0.452778
     19          1           0        3.321030   -2.302780    0.991977
     20          1           0        2.614015   -2.448514   -0.634501
     21          6           0        4.260609    0.396120    0.143907
     22          1           0        5.059428    0.134978   -0.553557
     23          1           0        3.971343    1.430536   -0.017336
     24          1           0        4.637228    0.286581    1.167841
 ---------------------------------------------------------------------

 SCF Done:  E(RB3LYP) =  -742.316877055     A.U. after   16 cycles

 Excitation energies and oscillator strengths:

 Excited State   1:      Triplet-A      1.0227 eV 1212.31 nm  f=0.0000  <S**2>=2.000
      54 -> 55         0.72701
      54 <- 55         0.19303
 This state for optimization and/or second-order correction.
 Total Energy, E(TD-HF/TD-DFT) =  -742.279293168
 Copying the excited state density for this state as the 1-particle RhoCI density.

 Excited State   2:      Singlet-A      2.6582 eV  466.43 nm  f=0.4110  <S**2>=0.000
      54 -> 55         0.71235
      54 <- 55        -0.14285

 Excited State   3:      Triplet-A      3.1158 eV  397.92 nm  f=0.0000  <S**2>=2.000
      53 -> 55         0.68954

 Excited State   4:      Triplet-A      3.4054 eV  364.08 nm  f=0.0000  <S**2>=2.000
      52 -> 55         0.69153

 Excited State   5:      Singlet-A      3.6925 eV  335.78 nm  f=0.0000  <S**2>=0.000
      52 -> 55         0.70124

 Excited State   6:      Singlet-A      3.7339 eV  332.05 nm  f=0.0242  <S**2>=0.000
      50 -> 55        -0.10696
      53 -> 55         0.69209

 Excited State   7:      Triplet-A      3.9791 eV  311.58 nm  f=0.0000  <S**2>=2.000
      50 -> 55         0.25986
      51 -> 55         0.63103

 Excited State   8:      Triplet-A      4.0494 eV  306.18 nm  f=0.0000  <S**2>=2.000
      49 -> 55        -0.16649
      50 -> 55         0.41273
      51 -> 55        -0.13030
      53 -> 62        -0.13208
      54 -> 58        -0.13293
      54 -> 59        -0.26473
      54 -> 60        -0.27207
      54 -> 61        -0.12434
      54 -> 62        -0.19469

 Excited State   9:      Triplet-A      4.2531 eV  291.52 nm  f=0.0000  <S**2>=2.000
      54 -> 56         0.65346
      54 -> 58        -0.11478
      54 -> 62         0.11877

 Excited State  10:      Singlet-A      4.3000 eV  288.34 nm  f=0.0127  <S**2>=0.000
      54 -> 56         0.69800

 Excited State  11:      Singlet-A      4.3508 eV  284.97 nm  f=0.0001  <S**2>=0.000
      50 -> 55         0.30930
      51 -> 55         0.62517

 Excited State  12:      Singlet-A      4.9853 eV  248.70 nm  f=0.0210  <S**2>=0.000
      50 -> 55         0.14370
      54 -> 57         0.45545
      54 -> 58         0.49166

 The electronic state is 1-A.
 Alpha  occ. eigenvalues --  -19.20429 -19.17823 -19.14532 -19.11630 -14.39228
 Alpha  occ. eigenvalues --  -10.32913 -10.30836 -10.30070 -10.23952 -10.23805
 Alpha  occ. eigenvalues --  -10.23510 -10.22217 -10.20330 -10.18518 -10.18139
 Alpha  occ. eigenvalues --   -1.15051  -1.11774  -1.07501  -1.03890  -0.99515
 Alpha  occ. eigenvalues --   -0.85939  -0.80855  -0.77108  -0.76477  -0.72900
 Alpha  occ. eigenvalues --   -0.67844  -0.64784  -0.62123  -0.57228  -0.56891
 Alpha  occ. eigenvalues --   -0.54494  -0.52276  -0.51970  -0.49063  -0.48857
 Alpha  occ. eigenvalues --   -0.48643  -0.47007  -0.46089  -0.45408  -0.44282
 Alpha  occ. eigenvalues --   -0.44099  -0.43865  -0.43062  -0.41378  -0.40546
 Alpha  occ. eigenvalues --   -0.39923  -0.38429  -0.36347  -0.34735  -0.31562
 Alpha  occ. eigenvalues --   -0.31396  -0.28440  -0.27182  -0.20499
 Alpha virt. eigenvalues --   -0.10838  -0.02630  -0.00070   0.00319   0.00618
 Alpha virt. eigenvalues --    0.01197   0.01432   0.01891   0.02261   0.02739
 Alpha virt. eigenvalues --    0.03176   0.03838   0.04065   0.04533   0.04994

 Mulliken charges:
               1
     1  C   -0.180142
     2  C    0.186102
     3  H    0.204004
     4  C   -0.336476
     5  C   -0.054579
     6  O   -0.311464
     7  O   -0.070045
     8  C    1.301113
     9  C    0.090652
    10  H    0.212268
    11  C   -0.991815
    12  C   -0.093104
    13  O   -0.270000
    14  O   -0.142102
    15  H    0.208746
    16  N   -0.075313
    17  C   -0.370903
    18  H    0.154743
    19  H    0.199133
    20  H    0.169891
    21  C   -0.355305
    22  H    0.156618
    23  H    0.194755
    24  H    0.173223
 Sum of Mulliken charges =  -0.00000

 Dipole moment (field-independent basis, Debye):
    X=              5.8432    Y=             -0.1757    Z=              0.1725  Tot=              5.8484
 Quadrupole moment (field-independent basis, Debye-Ang):
   XX=            -64.5001   YY=            -99.2832   ZZ=            -87.1076
   XY=            -15.8588   XZ=              0.5456   YZ=              0.3915

 Normal termination of Gaussian 16 at Sat Sep 20 15:20:28 2025.
