 Gaussian 16, Revision C.02,
 Gaussian 16:  ES64L-G16RevC.02  7-Dec-2021

 ------------------------------------------------------------
 # td=(50-50,nstates=3) b3lyp/6-311++g(d,p) geom=connectivity
 ------------------------------------------------------------

 ----
 CNSH
 ----
 Symbolic Z-matrix:
 Charge =  0 Multiplicity = 1

                         Standard orientation:
 ---------------------------------------------------------------------
 Center     Atomic      Atomic             Coordinates (Angstroms)
 Number     Number       Type             X           Y           Z
 ---------------------------------------------------------------------
      1          6           0        0.606291   -0.419110   -0.076624
      2          6           0       -0.471125    0.426231   -0.091758
      3          6           0       -1.890947    0.202643    0.053317
      4          6           0       -2.480842    1.415954   -0.113193
      5          6           0        2.024799   -0.152791    0.106467
      6          6           0        2.661016   -1.350202    0.007998
      7          8           0        1.837889   -2.382288   -0.279688
      8          6           0        0.528121   -1.878716   -0.364722
      9          8           0       -0.367358   -2.581672   -0.729432
     10          6           0       -0.329871    1.895560   -0.387396
     11          8           0        0.620678    2.544670   -0.686509
     12          8           0       -1.619637    2.437382   -0.374325
     13          1           0       -3.520485    1.690766   -0.019477
     14         16           0       -2.797105   -1.157935    0.737960
     15          1           0       -2.307400   -2.112970   -0.080036
     16          7           0        3.294921    1.919300    0.947801
     17          6           0        2.692968    1.020779    0.542847
     18          1           0        3.702087   -1.592762    0.155563
 ---------------------------------------------------------------------

 SCF Done:  E(RB3LYP) =  -1098.74819640     A.U. after   17 cycles

 Excitation energies and oscillator strengths:

 Excited State   1:      Triplet-A      0.8875 eV 1396.94 nm  f=0.0000  <S**2>=2.000
      55 -> 57        -0.23602
      56 -> 57         0.69335
      55 <- 57        -0.10578
      56 <- 57         0.20665
 This state for optimization and/or second-order correction.
 Total Energy, E(TD-HF/TD-DFT) =  -1098.71557985
 Copying the excited state density for this state as the 1-particle RhoCI density.

 Excited State   2:      Singlet-A      2.0771 eV  596.92 nm  f=0.0437  <S**2>=0.000
      55 -> 57         0.28911
      56 -> 57         0.64448

 Excited State   3:      Triplet-A      2.1118 eV  587.11 nm  f=0.0000  <S**2>=2.000
      55 -> 57         0.65749
      56 -> 57         0.21492

 Excited State   4:      Singlet-A      2.8889 eV  429.18 nm  f=0.1445  <S**2>=0.000
      54 -> 57        -0.12180
      55 -> 57         0.63384
      56 -> 57        -0.27755

 Excited State   5:      Triplet-A      2.9890 eV  414.81 nm  f=0.0000  <S**2>=2.000
      53 -> 57         0.39437
      54 -> 57         0.55586

 Excited State   6:      Singlet-A      3.3264 eV  372.73 nm  f=0.0087  <S**2>=0.000
      53 -> 57         0.56916
      54 -> 57         0.40319

 The electronic state is 1-A.
 Alpha  occ. eigenvalues --  -88.88150 -19.23710 -19.22667 -19.17447 -19.17010
 Alpha  occ. eigenvalues --  -14.33376 -10.36041 -10.35352 -10.30592 -10.29428
 Alpha  occ. eigenvalues --  -10.26904 -10.26839 -10.26164 -10.25616 -10.23377
 Alpha  occ. eigenvalues --   -7.96831  -5.93245  -5.92822  -5.92205  -1.18078
 Alpha  occ. eigenvalues --   -1.17163  -1.10171  -1.09650  -0.93554  -0.90695
 Alpha  occ. eigenvalues --   -0.86831  -0.81334  -0.77100  -0.75359  -0.70792
 Alpha  occ. eigenvalues --   -0.67900  -0.61532  -0.60754  -0.58227  -0.55797
 Alpha  occ. eigenvalues --   -0.53229  -0.52908  -0.52138  -0.50570  -0.49389
 Alpha  occ. eigenvalues --   -0.47531  -0.47307  -0.44736  -0.43866  -0.42723
 Alpha  occ. eigenvalues --   -0.41508  -0.40497  -0.39568  -0.38527  -0.36793
 Alpha  occ. eigenvalues --   -0.36372  -0.34628  -0.32553  -0.31993  -0.28351
 Alpha  occ. eigenvalues --   -0.25506
 Alpha virt. eigenvalues --   -0.16174  -0.06448  -0.03471  -0.02311  -0.01786
 Alpha virt. eigenvalues --   -0.00845  -0.00373  -0.00130   0.01095   0.01267
 Alpha virt. eigenvalues --    0.02234   0.02529   0.03862   0.04275   0.04691

 Mulliken charges:
               1
     1  C    0.533145
     2  C    0.612994
     3  C    0.026657
     4  C    0.039506
     5  C    1.720125
     6  C    0.060373
     7  O   -0.021693
     8  C   -0.261461
     9  O   -0.276865
    10  C   -0.497876
    11  O   -0.209126
    12  O   -0.041236
    13  H    0.245346
    14  S   -0.434625
    15  H    0.094946
    16  N   -0.154058
    17  C   -1.693570
    18  H    0.257417
 Sum of Mulliken charges =  -0.00000

 Dipole moment (field-independent basis, Debye):
    X=             -1.9272    Y=             -2.5665    Z=             -0.1494  Tot=              3.2131
 Quadrupole moment (field-independent basis, Debye-Ang):
   XX=            -87.1873   YY=           -107.1875   ZZ=            -93.3485
   XY=            -17.3764   XZ=             -2.4380   YZ=             -2.1794

 Normal termination of Gaussian 16 at Tue Aug 26 12:45:49 2025.
