 Gaussian 16, Revision C.02,
 Gaussian 16:  ES64L-G16RevC.02  7-Dec-2021

 ------------------------------------------------------------
 # td=(50-50,nstates=3) b3lyp/6-311++g(d,p) geom=connectivity
 ------------------------------------------------------------

 -------------------
 Title Card Required
 -------------------
 Symbolic Z-matrix:
 Charge =  0 Multiplicity = 2

                         Standard orientation:
 ---------------------------------------------------------------------
 Center     Atomic      Atomic             Coordinates (Angstroms)
 Number     Number       Type             X           Y           Z
 ---------------------------------------------------------------------
      1          6           0       -0.491845    0.460091   -0.107897
      2          6           0        0.565893   -0.420274   -0.089906
      3          6           0        1.984251   -0.198620    0.128034
      4          6           0        2.591318   -1.410950    0.007280
      5          6           0       -1.914488    0.256058    0.067034
      6          6           0       -2.456962    1.489579   -0.154198
      7          8           0       -1.652922    2.485696   -0.422703
      8          6           0       -0.297895    1.913092   -0.410010
      9          8           0        0.631594    2.574911   -0.702933
     10          6           0        0.448783   -1.864622   -0.412321
     11          8           0       -0.463765   -2.534778   -0.800250
     12          8           0        1.743810   -2.408664   -0.319080
     13          1           0        3.623498   -1.685489    0.160888
     14          6           0        2.664521    0.956528    0.591085
     15          7           0        3.256916    1.855033    1.010166
     16         16           0       -2.798108   -1.079098    0.811232
     17          1           0       -2.283384   -2.056782    0.033368
 ---------------------------------------------------------------------

 SCF Done:  E(UB3LYP) =  -1098.05129561     A.U. after   29 cycles

 Excitation energies and oscillator strengths:

 Excited State   1:  2.936-A      0.8013 eV 1547.31 nm  f=0.0007  <S**2>=1.905
     55A -> 57A       -0.18545
     56A -> 57A       -0.57099
     54B -> 57B        0.15795
     55B -> 56B        0.78277
     55B -> 57B        0.21990
     56A <- 57A       -0.17533
     55B <- 56B        0.13617
     55B <- 57B        0.10843
 This state for optimization and/or second-order correction.
 Total Energy, E(TD-HF/TD-DFT) =  -1098.02184870
 Copying the excited state density for this state as the 1-particle RhoCI density.

 Excited State   2:  2.604-A      1.1186 eV 1108.38 nm  f=0.0021  <S**2>=1.445
     55A -> 57A       -0.13587
     56A -> 57A       -0.43045
     54B -> 56B        0.12711
     54B -> 57B        0.11750
     55B -> 56B       -0.52745
     55B -> 57B        0.69236

 Excited State   3:  2.055-A      1.9315 eV  641.92 nm  f=0.0379  <S**2>=0.806
     55A -> 57A       -0.35519
     56A -> 57A        0.65365
     54B -> 56B       -0.12825
     54B -> 57B       -0.11813
     55B -> 56B        0.25790
     55B -> 57B        0.58338

 The electronic state is 2-A.
 Alpha  occ. eigenvalues --  -88.88406 -19.24316 -19.24062 -19.19795 -19.17597
 Alpha  occ. eigenvalues --  -14.34052 -10.37138 -10.36244 -10.32222 -10.30912
 Alpha  occ. eigenvalues --  -10.28155 -10.27161 -10.26653 -10.26525 -10.23958
 Alpha  occ. eigenvalues --   -7.97077  -5.93500  -5.93065  -5.92445  -1.18740
 Alpha  occ. eigenvalues --   -1.18330  -1.12662  -1.10291  -0.94196  -0.91536
 Alpha  occ. eigenvalues --   -0.87425  -0.81587  -0.77735  -0.75007  -0.71291
 Alpha  occ. eigenvalues --   -0.68607  -0.62315  -0.61200  -0.57460  -0.56062
 Alpha  occ. eigenvalues --   -0.53851  -0.53087  -0.52986  -0.50861  -0.49542
 Alpha  occ. eigenvalues --   -0.48745  -0.46025  -0.45287  -0.44123  -0.42947
 Alpha  occ. eigenvalues --   -0.41122  -0.40160  -0.39142  -0.38950  -0.37216
 Alpha  occ. eigenvalues --   -0.36784  -0.34442  -0.32479  -0.31500  -0.28697
 Alpha  occ. eigenvalues --   -0.25689
 Alpha virt. eigenvalues --   -0.16901  -0.06828  -0.04160  -0.02845  -0.01776
 Alpha virt. eigenvalues --   -0.00970  -0.00482  -0.00193   0.01040   0.01936
 Alpha virt. eigenvalues --    0.02134   0.02971   0.03743   0.04537   0.04970

  Beta  occ. eigenvalues --  -88.88400 -19.24119 -19.24057 -19.19594 -19.17720
  Beta  occ. eigenvalues --  -14.34033 -10.37061 -10.36235 -10.31029 -10.30524
  Beta  occ. eigenvalues --  -10.27959 -10.27300 -10.26597 -10.26442 -10.23967
  Beta  occ. eigenvalues --   -7.97071  -5.93488  -5.93059  -5.92441  -1.18400
  Beta  occ. eigenvalues --   -1.18128  -1.12158  -1.10475  -0.94168  -0.91305
  Beta  occ. eigenvalues --   -0.87122  -0.81339  -0.77646  -0.73677  -0.70965
  Beta  occ. eigenvalues --   -0.68138  -0.61996  -0.60930  -0.56917  -0.55748
  Beta  occ. eigenvalues --   -0.53727  -0.52727  -0.52646  -0.50829  -0.49068
  Beta  occ. eigenvalues --   -0.48506  -0.45513  -0.45189  -0.43389  -0.43161
  Beta  occ. eigenvalues --   -0.41102  -0.40110  -0.39110  -0.37612  -0.37015
  Beta  occ. eigenvalues --   -0.36071  -0.33906  -0.32430  -0.28691  -0.25403
  Beta virt. eigenvalues --   -0.17276  -0.16145  -0.07105  -0.03279  -0.02083
  Beta virt. eigenvalues --   -0.01663  -0.00976  -0.00311  -0.00131   0.01102
  Beta virt. eigenvalues --    0.02074   0.02218   0.03243   0.03849   0.04662

 Mulliken charges and spin densities:
               1          2
     1  C    0.469285   0.172003
     2  C    0.449094  -0.106206
     3  C    1.818808   0.053681
     4  C    0.035804  -0.077414
     5  C    0.259311  -0.055093
     6  C    0.061396   0.945302
     7  O    0.020098  -0.001377
     8  C   -0.466182   0.014796
     9  O   -0.163054   0.071671
    10  C   -0.285359   0.005521
    11  O   -0.266963  -0.045460
    12  O   -0.019117   0.003778
    13  H    0.255613   0.005650
    14  C   -1.743477  -0.011101
    15  N   -0.147091   0.009388
    16  S   -0.378413   0.013591
    17  H    0.100248   0.001269
 Sum of Mulliken charges =  -0.00000   1.00000

 Dipole moment (field-independent basis, Debye):
    X=             -0.2718    Y=             -2.6009    Z=             -0.1821  Tot=              2.6214
 Quadrupole moment (field-independent basis, Debye-Ang):
   XX=            -92.9165   YY=           -104.6958   ZZ=            -92.7705
   XY=            -13.9195   XZ=             -3.1402   YZ=             -3.1708

 Normal termination of Gaussian 16 at Mon Aug 25 21:04:05 2025.
