 Gaussian 16, Revision C.02,
 Gaussian 16:  ES64L-G16RevC.02  7-Dec-2021

 ------------------------------------------------------------
 # td=(50-50,nstates=3) b3lyp/6-311++g(d,p) geom=connectivity
 ------------------------------------------------------------

 -------------------
 Title Card Required
 -------------------
 Symbolic Z-matrix:
 Charge =  0 Multiplicity = 1

                         Standard orientation:
 ---------------------------------------------------------------------
 Center     Atomic      Atomic             Coordinates (Angstroms)
 Number     Number       Type             X           Y           Z
 ---------------------------------------------------------------------
      1          6           0       -0.419527    0.038001    0.033814
      2          6           0        0.889080    0.447369    0.009901
      3          6           0        2.165706   -0.229276   -0.009639
      4          6           0        3.106476    0.746173    0.086643
      5          6           0       -1.596426    0.853606   -0.103802
      6          6           0       -2.661022    0.020575   -0.047717
      7          8           0       -2.313399   -1.298381    0.158751
      8          6           0       -0.927151   -1.351224    0.261029
      9          8           0       -0.378490   -2.372092    0.562014
     10          6           0        1.223607    1.916651    0.068685
     11          8           0        0.520353    2.880531    0.085442
     12          8           0        2.607493    2.019037    0.138396
     13          1           0        4.182652    0.668149    0.088257
     14         16           0        2.626552   -1.895049   -0.398730
     15          1           0        1.621132   -2.497936    0.269749
     16          6           0       -4.039537    0.306855   -0.178020
     17          7           0       -5.162179    0.558105   -0.286457
     18          1           0       -1.628250    1.918706   -0.255302
 ---------------------------------------------------------------------

 SCF Done:  E(RB3LYP) =  -1098.75346218     A.U. after   17 cycles

 Excitation energies and oscillator strengths:

 Excited State   1:      Triplet-A      0.7574 eV 1636.96 nm  f=0.0000  <S**2>=2.000
      55 -> 57         0.25869
      56 -> 57         0.69916
      55 <- 57         0.13090
      56 <- 57         0.22526
 This state for optimization and/or second-order correction.
 Total Energy, E(TD-HF/TD-DFT) =  -1098.72562806
 Copying the excited state density for this state as the 1-particle RhoCI density.

 Excited State   2:      Singlet-A      1.8919 eV  655.34 nm  f=0.0584  <S**2>=0.000
      55 -> 57        -0.23811
      56 -> 57         0.66800

 Excited State   3:      Triplet-A      1.9825 eV  625.39 nm  f=0.0000  <S**2>=2.000
      55 -> 57         0.65663
      56 -> 57        -0.22360

 Excited State   4:      Triplet-A      2.9765 eV  416.54 nm  f=0.0000  <S**2>=2.000
      53 -> 57        -0.12725
      54 -> 57         0.67575

 Excited State   5:      Singlet-A      2.9886 eV  414.86 nm  f=0.2873  <S**2>=0.000
      55 -> 57         0.65929
      56 -> 57         0.24046

 Excited State   6:      Singlet-A      3.2742 eV  378.67 nm  f=0.0005  <S**2>=0.000
      53 -> 57        -0.18123
      54 -> 57         0.67770

 The electronic state is 1-A.
 Alpha  occ. eigenvalues --  -88.88264 -19.23256 -19.23027 -19.17518 -19.17328
 Alpha  occ. eigenvalues --  -14.35973 -10.36103 -10.35933 -10.31930 -10.29470
 Alpha  occ. eigenvalues --  -10.27245 -10.26674 -10.26011 -10.25212 -10.24087
 Alpha  occ. eigenvalues --   -7.96958  -5.93374  -5.92938  -5.92338  -1.17763
 Alpha  occ. eigenvalues --   -1.17607  -1.09998  -1.09870  -0.95278  -0.90957
 Alpha  occ. eigenvalues --   -0.86763  -0.82198  -0.78278  -0.75706  -0.70398
 Alpha  occ. eigenvalues --   -0.66344  -0.63688  -0.60097  -0.59616  -0.54989
 Alpha  occ. eigenvalues --   -0.53375  -0.52434  -0.52109  -0.50442  -0.49942
 Alpha  occ. eigenvalues --   -0.48086  -0.46832  -0.44263  -0.43605  -0.43530
 Alpha  occ. eigenvalues --   -0.41839  -0.40643  -0.40196  -0.39000  -0.38431
 Alpha  occ. eigenvalues --   -0.38094  -0.34900  -0.33938  -0.32581  -0.28790
 Alpha  occ. eigenvalues --   -0.25300
 Alpha virt. eigenvalues --   -0.16747  -0.06639  -0.03446  -0.03153  -0.02270
 Alpha virt. eigenvalues --   -0.01745  -0.00793  -0.00172   0.00848   0.01436
 Alpha virt. eigenvalues --    0.02397   0.02734   0.04242   0.04535   0.04618

 Mulliken charges:
               1
     1  C    0.673217
     2  C    0.429921
     3  C    0.241724
     4  C    0.001812
     5  C    0.267286
     6  C    0.830342
     7  O   -0.037925
     8  C   -0.137789
     9  O   -0.286725
    10  C   -0.361618
    11  O   -0.249035
    12  O   -0.050115
    13  H    0.250222
    14  S   -0.372872
    15  H    0.085716
    16  C   -1.394263
    17  N   -0.152909
    18  H    0.263013
 Sum of Mulliken charges =  -0.00000

 Dipole moment (field-independent basis, Debye):
    X=              4.0498    Y=              0.1391    Z=             -0.0832  Tot=              4.0530
 Quadrupole moment (field-independent basis, Debye-Ang):
   XX=           -105.0589   YY=           -104.3326   ZZ=            -90.9049
   XY=              0.1684   XZ=             -0.5996   YZ=              0.1803

 Normal termination of Gaussian 16 at Thu Sep 11 00:11:00 2025.
