 Gaussian 16, Revision C.02,
 Gaussian 16:  ES64L-G16RevC.02  7-Dec-2021

 -----------------------------------------------------------
 # td=(50-50,nstates=3) b3lyp/6-31++g(d,p) geom=connectivity
 -----------------------------------------------------------

 -------------------
 Title Card Required
 -------------------
 Symbolic Z-matrix:
 Charge =  0 Multiplicity = 1

                         Standard orientation:
 ---------------------------------------------------------------------
 Center     Atomic      Atomic             Coordinates (Angstroms)
 Number     Number       Type             X           Y           Z
 ---------------------------------------------------------------------
      1          6           0       -1.789452    0.419170    0.000026
      2          6           0       -0.429336    0.611705   -0.000314
      3          6           0        0.712169   -0.270355   -0.000425
      4          6           0        1.818964    0.514436   -0.001012
      5          6           0       -2.833696    1.398397    0.002687
      6          1           0       -2.712722    2.470113    0.004717
      7          6           0       -4.006749    0.713188    0.002829
      8          1           0       -5.028236    1.068065    0.005016
      9          8           0        1.554162    1.843346   -0.001603
     10          6           0        0.156907    1.985074   -0.000763
     11          8           0       -0.362758    3.066691   -0.000836
     12          6           0       -2.488807   -0.914871   -0.002657
     13          8           0       -2.063010   -2.031962   -0.007379
     14          8           0       -3.864570   -0.643408   -0.000112
     15          7           0        0.720681   -1.739975    0.001751
     16          8           0        0.720688   -2.281071   -1.094196
     17          8           0        0.714119   -2.277850    1.099481
     18          7           0        3.211481    0.130537    0.000199
     19          8           0        3.428900   -1.082979    0.003115
     20          8           0        4.044447    1.030662   -0.001671
 ---------------------------------------------------------------------

 SCF Done:  E(RB3LYP) =  -1017.11668185     A.U. after   17 cycles

 Excitation energies and oscillator strengths:

 Excited State   1:      Triplet-A      0.9607 eV 1290.53 nm  f=0.0000  <S**2>=2.000
      64 -> 65         0.72916
      64 <- 65         0.22246
 This state for optimization and/or second-order correction.
 Total Energy, E(TD-HF/TD-DFT) =  -1017.08137590
 Copying the excited state density for this state as the 1-particle RhoCI density.

 Excited State   2:      Triplet-A      2.3812 eV  520.68 nm  f=0.0000  <S**2>=2.000
      56 -> 65        -0.13971
      56 -> 66        -0.16548
      58 -> 65        -0.29139
      58 -> 66        -0.26136
      60 -> 65         0.40117
      60 -> 66         0.34072
      63 -> 65         0.16165
      64 -> 66        -0.10561
      60 <- 66         0.10468

 Excited State   3:      Triplet-A      2.5833 eV  479.95 nm  f=0.0000  <S**2>=2.000
      56 -> 65         0.17903
      63 -> 65         0.60909
      64 -> 66        -0.23474

 Excited State   4:      Singlet-A      2.6753 eV  463.45 nm  f=0.3577  <S**2>=0.000
      64 -> 65         0.70208
      64 <- 65        -0.13299

 Excited State   5:      Singlet-A      3.1032 eV  399.53 nm  f=0.0329  <S**2>=0.000
      63 -> 65         0.68996

 Excited State   6:      Singlet-A      3.1063 eV  399.14 nm  f=0.0002  <S**2>=0.000
      59 -> 65         0.11553
      61 -> 66        -0.12017
      62 -> 65         0.67615

 The electronic state is 1-A.
 Alpha  occ. eigenvalues --  -19.28394 -19.27671 -19.23489 -19.23486 -19.23378
 Alpha  occ. eigenvalues --  -19.23152 -19.22436 -19.21790 -14.62627 -14.62447
 Alpha  occ. eigenvalues --  -10.39275 -10.39255 -10.37294 -10.33507 -10.32858
 Alpha  occ. eigenvalues --  -10.30716 -10.30605 -10.26212  -1.27995  -1.27530
 Alpha  occ. eigenvalues --   -1.19673  -1.18874  -1.11374  -1.11286  -1.10716
 Alpha  occ. eigenvalues --   -1.10407  -0.93600  -0.89466  -0.85646  -0.80837
 Alpha  occ. eigenvalues --   -0.78142  -0.72714  -0.70041  -0.66566  -0.63164
 Alpha  occ. eigenvalues --   -0.61533  -0.60304  -0.59073  -0.58924  -0.58172
 Alpha  occ. eigenvalues --   -0.55476  -0.55412  -0.54445  -0.54036  -0.52947
 Alpha  occ. eigenvalues --   -0.52681  -0.51107  -0.49406  -0.48647  -0.47111
 Alpha  occ. eigenvalues --   -0.44710  -0.43213  -0.42949  -0.41400  -0.36528
 Alpha  occ. eigenvalues --   -0.36490  -0.35706  -0.35699  -0.35517  -0.34941
 Alpha  occ. eigenvalues --   -0.34360  -0.33746  -0.32598  -0.28452
 Alpha virt. eigenvalues --   -0.18607  -0.12339  -0.11599  -0.04190  -0.03355
 Alpha virt. eigenvalues --   -0.02609  -0.01774  -0.01292   0.00447   0.01566
 Alpha virt. eigenvalues --    0.02071   0.03136   0.03657   0.04581   0.04698

 Mulliken charges:
               1
     1  C    0.398265
     2  C    0.671957
     3  C   -0.995975
     4  C    0.835239
     5  C   -0.240726
     6  H    0.206849
     7  C   -0.198440
     8  H    0.175340
     9  O   -0.351072
    10  C    0.750723
    11  O   -0.461823
    12  C    0.613651
    13  O   -0.388885
    14  O   -0.253089
    15  N   -0.429862
    16  O    0.069027
    17  O    0.068246
    18  N   -0.599095
    19  O   -0.002063
    20  O    0.131734
 Sum of Mulliken charges =  -0.00000

 Dipole moment (field-independent basis, Debye):
    X=             -6.4509    Y=              3.6410    Z=              0.0061  Tot=              7.4075
 Quadrupole moment (field-independent basis, Debye-Ang):
   XX=            -95.5450   YY=           -119.5606   ZZ=            -98.6327
   XY=             -9.0418   XZ=             -0.0345   YZ=              0.0126

 Normal termination of Gaussian 16 at Wed Jul  2 10:17:23 2025.
