 Gaussian 16, Revision C.02,
 Gaussian 16:  ES64L-G16RevC.02  7-Dec-2021

 -----------------------------------------------------------
 # td=(50-50,nstates=3) b3lyp/6-31++g(d,p) geom=connectivity
 -----------------------------------------------------------

 ------------
 MF2 2R OPTIN
 ------------
 Symbolic Z-matrix:
 Charge =  0 Multiplicity = 1

                         Standard orientation:
 ---------------------------------------------------------------------
 Center     Atomic      Atomic             Coordinates (Angstroms)
 Number     Number       Type             X           Y           Z
 ---------------------------------------------------------------------
      1          6           0        0.015200    0.684451    0.000004
      2          6           0       -0.015200   -0.684451    0.000004
      3          6           0       -1.123821   -1.604943    0.000128
      4          6           0       -0.557616   -2.829984    0.000070
      5          6           0        1.123821    1.604943    0.000128
      6          6           0        0.557616    2.829984    0.000070
      7          8           0       -0.797424    2.866627   -0.000005
      8          6           0       -1.221069    1.513954    0.000020
      9          8           0       -2.385746    1.225217    0.000073
     10          6           0        1.221069   -1.513954    0.000020
     11          8           0        2.385746   -1.225217    0.000073
     12          8           0        0.797424   -2.866627   -0.000005
     13          9           0        1.123821    4.015951   -0.000223
     14          9           0       -1.123821   -4.015951   -0.000223
     15          1           0        2.176200    1.371228    0.000125
     16          1           0       -2.176200   -1.371228    0.000125
 ---------------------------------------------------------------------

 SCF Done:  E(RB3LYP) =  -806.623569408     A.U. after   14 cycles

 Excitation energies and oscillator strengths:

 Excited State   1:      Triplet-B      1.1047 eV 1122.30 nm  f=0.0000  <S**2>=2.000
      50 -> 51         0.72764
      50 <- 51         0.20128
 This state for optimization and/or second-order correction.
 Total Energy, E(TD-HF/TD-DFT) =  -806.582971345
 Copying the excited state density for this state as the 1-particle RhoCI density.

 Excited State   2:      Singlet-B      2.9122 eV  425.74 nm  f=0.3095  <S**2>=0.000
      50 -> 51         0.70914
      50 <- 51        -0.13889

 Excited State   3:      Triplet-A      3.3123 eV  374.32 nm  f=0.0000  <S**2>=2.000
      49 -> 51         0.68961
      50 -> 56        -0.13647

 Excited State   4:      Triplet-B      3.4861 eV  355.65 nm  f=0.0000  <S**2>=2.000
      47 -> 53         0.11412
      48 -> 51         0.69336

 Excited State   5:      Singlet-A      3.8353 eV  323.27 nm  f=0.0000  <S**2>=0.000
      49 -> 51         0.70265

 Excited State   6:      Singlet-B      3.8430 eV  322.63 nm  f=0.0000  <S**2>=0.000
      48 -> 51         0.70143

 The electronic state is 1-A.
 Alpha  occ. eigenvalues --  -24.79327 -24.79327 -19.26135 -19.26135 -19.20161
 Alpha  occ. eigenvalues --  -19.20161 -10.38580 -10.38580 -10.37206 -10.37206
 Alpha  occ. eigenvalues --  -10.27254 -10.27187 -10.23995 -10.23995  -1.31190
 Alpha  occ. eigenvalues --   -1.31189  -1.16963  -1.16884  -1.09199  -1.09182
 Alpha  occ. eigenvalues --   -0.89795  -0.85076  -0.78382  -0.75234  -0.70225
 Alpha  occ. eigenvalues --   -0.66399  -0.63011  -0.62484  -0.60581  -0.57515
 Alpha  occ. eigenvalues --   -0.55656  -0.55390  -0.52024  -0.51994  -0.50622
 Alpha  occ. eigenvalues --   -0.49792  -0.49135  -0.48976  -0.47769  -0.47102
 Alpha  occ. eigenvalues --   -0.44878  -0.44626  -0.42843  -0.40186  -0.40183
 Alpha  occ. eigenvalues --   -0.38044  -0.34089  -0.32814  -0.31462  -0.24827
 Alpha virt. eigenvalues --   -0.14261  -0.01665  -0.01478  -0.01453  -0.00372
 Alpha virt. eigenvalues --   -0.00032   0.01318   0.02861   0.03270   0.03497
 Alpha virt. eigenvalues --    0.05106   0.05119   0.05767   0.06850   0.06905

 Mulliken charges:
               1
     1  C    0.555006
     2  C    0.555006
     3  C   -0.471569
     4  C    0.257823
     5  C   -0.471569
     6  C    0.257823
     7  O   -0.350359
     8  C    0.586056
     9  O   -0.472991
    10  C    0.586056
    11  O   -0.472991
    12  O   -0.350359
    13  F   -0.296950
    14  F   -0.296950
    15  H    0.192984
    16  H    0.192984
 Sum of Mulliken charges =  -0.00000

 Dipole moment (field-independent basis, Debye):
    X=             -0.0000    Y=              0.0000    Z=              0.0001  Tot=              0.0001
 Quadrupole moment (field-independent basis, Debye-Ang):
   XX=            -86.3569   YY=            -82.8243   ZZ=            -74.3376
   XY=              8.8783   XZ=              0.0000   YZ=             -0.0000

 Normal termination of Gaussian 16 at Thu Jun 19 14:46:37 2025.
