 Gaussian 16, Revision C.02,
 Gaussian 16:  ES64L-G16RevC.02  7-Dec-2021

 -----------------------------------------------------------
 # td=(50-50,nstates=3) b3lyp/6-31++g(d,p) geom=connectivity
 -----------------------------------------------------------

 ----------------
 MF3 OPTIMIZATION
 ----------------
 Symbolic Z-matrix:
 Charge =  0 Multiplicity = 1

                         Standard orientation:
 ---------------------------------------------------------------------
 Center     Atomic      Atomic             Coordinates (Angstroms)
 Number     Number       Type             X           Y           Z
 ---------------------------------------------------------------------
      1          6           0       -0.371042    0.125547    0.005900
      2          6           0        0.994541   -0.034980   -0.008955
      3          6           0        2.073162    0.905739   -0.144051
      4          6           0        3.247706    0.238287   -0.108064
      5          6           0       -1.445664   -0.824185   -0.089391
      6          6           0       -2.608050   -0.131685   -0.025694
      7          8           0       -2.463686    1.199676    0.142339
      8          6           0       -1.061590    1.446928    0.179328
      9          8           0       -0.652195    2.549203    0.385362
     10          6           0        1.694504   -1.354372    0.159574
     11          8           0        1.268456   -2.451856    0.387444
     12          8           0        3.070092   -1.110232    0.083474
     13          1           0        4.262041    0.587710   -0.226932
     14          9           0       -3.839465   -0.562971   -0.137265
     15          9           0       -1.368564   -2.133115   -0.327341
     16          9           0        1.965275    2.217229   -0.376938
 ---------------------------------------------------------------------

 SCF Done:  E(RB3LYP) =  -905.820247530     A.U. after   17 cycles

 Excitation energies and oscillator strengths:

 Excited State   1:      Triplet-A      0.7552 eV 1641.65 nm  f=0.0000  <S**2>=2.000
      54 -> 55         0.75728
      54 <- 55         0.29162
 This state for optimization and/or second-order correction.
 Total Energy, E(TD-HF/TD-DFT) =  -905.792492972
 Copying the excited state density for this state as the 1-particle RhoCI density.

 Excited State   2:      Singlet-A      2.6347 eV  470.58 nm  f=0.2731  <S**2>=0.000
      54 -> 55         0.70907
      54 <- 55        -0.15158

 Excited State   3:      Triplet-A      2.7026 eV  458.76 nm  f=0.0000  <S**2>=2.000
      53 -> 55         0.69565

 Excited State   4:      Triplet-A      3.1346 eV  395.53 nm  f=0.0000  <S**2>=2.000
      52 -> 55         0.69444

 Excited State   5:      Singlet-A      3.3069 eV  374.92 nm  f=0.0066  <S**2>=0.000
      53 -> 55         0.69594

 Excited State   6:      Singlet-A      3.4510 eV  359.27 nm  f=0.0014  <S**2>=0.000
      52 -> 55         0.69702

 The electronic state is 1-A.
 Alpha  occ. eigenvalues --  -24.80516 -24.76754 -24.76205 -19.26979 -19.25247
 Alpha  occ. eigenvalues --  -19.20871 -19.19409 -10.39567 -10.38341 -10.36844
 Alpha  occ. eigenvalues --  -10.33091 -10.32250 -10.30287 -10.29047 -10.28172
 Alpha  occ. eigenvalues --   -1.32437  -1.27645  -1.27098  -1.17935  -1.16246
 Alpha  occ. eigenvalues --   -1.10164  -1.08385  -0.90375  -0.85352  -0.79347
 Alpha  occ. eigenvalues --   -0.76184  -0.70447  -0.66264  -0.64270  -0.62979
 Alpha  occ. eigenvalues --   -0.61514  -0.58286  -0.57089  -0.56589  -0.54531
 Alpha  occ. eigenvalues --   -0.52778  -0.51686  -0.50765  -0.50017  -0.49665
 Alpha  occ. eigenvalues --   -0.49190  -0.48937  -0.48233  -0.47458  -0.44963
 Alpha  occ. eigenvalues --   -0.42788  -0.41567  -0.40915  -0.40031  -0.37468
 Alpha  occ. eigenvalues --   -0.34262  -0.32358  -0.30460  -0.25025
 Alpha virt. eigenvalues --   -0.15466  -0.02500  -0.02098  -0.01449  -0.00507
 Alpha virt. eigenvalues --    0.00110   0.00912   0.01670   0.02907   0.03420
 Alpha virt. eigenvalues --    0.04931   0.05378   0.05702   0.06672   0.07340

 Mulliken charges:
               1
     1  C    0.681112
     2  C    0.335661
     3  C    0.318952
     4  C    0.054980
     5  C    0.040511
     6  C    0.605411
     7  O   -0.367026
     8  C    0.132077
     9  O   -0.432736
    10  C    0.113536
    11  O   -0.434294
    12  O   -0.286593
    13  H    0.187238
    14  F   -0.293055
    15  F   -0.326952
    16  F   -0.328822
 Sum of Mulliken charges =  -0.00000

 Dipole moment (field-independent basis, Debye):
    X=              1.0823    Y=              0.6904    Z=             -0.7202  Tot=              1.4720
 Quadrupole moment (field-independent basis, Debye-Ang):
   XX=            -72.7304   YY=           -100.0547   ZZ=            -78.3447
   XY=              6.1030   XZ=             -1.0111   YZ=              0.0220

 Normal termination of Gaussian 16 at Tue Jun 17 14:46:15 2025.
