 Gaussian 16, Revision C.02,
 Gaussian 16:  ES64L-G16RevC.02  7-Dec-2021

 -----------------------------------------------------------
 # td=(50-50,nstates=3) b3lyp/6-31++g(d,p) geom=connectivity
 -----------------------------------------------------------

 -------------------
 Title Card Required
 -------------------
 Symbolic Z-matrix:
 Charge =  0 Multiplicity = 1

                         Standard orientation:
 ---------------------------------------------------------------------
 Center     Atomic      Atomic             Coordinates (Angstroms)
 Number     Number       Type             X           Y           Z
 ---------------------------------------------------------------------
      1          6           0       -1.459410   -0.121586   -0.000082
      2          6           0       -0.116914    0.170789   -0.000258
      3          6           0        0.977076   -0.766708   -0.000037
      4          6           0        2.102599   -0.017873   -0.000050
      5          6           0       -2.660165    0.675136    0.000578
      6          6           0       -3.713040   -0.185288    0.000561
      7          8           0        1.915904    1.323646   -0.000452
      8          6           0        0.515035    1.536788   -0.000823
      9          8           0        0.069274    2.645230   -0.001686
     10          6           0       -1.950883   -1.546072   -0.000423
     11          8           0       -1.341257   -2.582098   -0.001063
     12          8           0       -3.336080   -1.514436    0.000019
     13          7           0        3.473122   -0.485143    0.000483
     14          8           0        3.626493   -1.709615    0.000503
     15          8           0        4.362304    0.361755    0.000882
     16          1           0        0.919489   -1.842855    0.000250
     17          1           0       -4.777754   -0.000982    0.000901
     18          8           0       -2.675859    2.027093    0.001368
     19          1           0       -3.585615    2.356128    0.002104
 ---------------------------------------------------------------------

 SCF Done:  E(RB3LYP) =  -887.850867974     A.U. after   17 cycles

 Excitation energies and oscillator strengths:

 Excited State   1:      Triplet-A      0.6780 eV 1828.69 nm  f=0.0000  <S**2>=2.000
      56 -> 58         0.10110
      57 -> 58         0.74989
      57 <- 58         0.29297
 This state for optimization and/or second-order correction.
 Total Energy, E(TD-HF/TD-DFT) =  -887.825952068
 Copying the excited state density for this state as the 1-particle RhoCI density.

 Excited State   2:      Triplet-A      2.2568 eV  549.39 nm  f=0.0000  <S**2>=2.000
      52 -> 58         0.16342
      52 -> 59         0.18152
      56 -> 58         0.64103
      57 -> 59         0.13655

 Excited State   3:      Singlet-A      2.2809 eV  543.57 nm  f=0.2248  <S**2>=0.000
      56 -> 58        -0.17832
      57 -> 58         0.68884
      57 <- 58        -0.12913

 Excited State   4:      Triplet-A      2.4768 eV  500.59 nm  f=0.0000  <S**2>=2.000
      52 -> 58         0.51764
      52 -> 59         0.42589
      56 -> 58        -0.23367
      52 <- 59         0.13100

 Excited State   5:      Singlet-A      3.1371 eV  395.22 nm  f=0.0000  <S**2>=0.000
      54 -> 59         0.14349
      55 -> 58         0.68104

 Excited State   6:      Singlet-A      3.1470 eV  393.97 nm  f=0.1267  <S**2>=0.000
      56 -> 58         0.67544
      57 -> 58         0.18108

 The electronic state is 1-A.
 Alpha  occ. eigenvalues --  -19.25942 -19.25869 -19.23631 -19.21905 -19.21591
 Alpha  occ. eigenvalues --  -19.20502 -19.19967 -14.60885 -10.37669 -10.37356
 Alpha  occ. eigenvalues --  -10.34683 -10.31346 -10.30742 -10.28709 -10.28612
 Alpha  occ. eigenvalues --  -10.25837  -1.26081  -1.17214  -1.17115  -1.11762
 Alpha  occ. eigenvalues --   -1.09395  -1.09193  -1.08619  -0.90268  -0.86110
 Alpha  occ. eigenvalues --   -0.83269  -0.77917  -0.71730  -0.68409  -0.66675
 Alpha  occ. eigenvalues --   -0.63642  -0.60245  -0.58916  -0.57188  -0.56698
 Alpha  occ. eigenvalues --   -0.54793  -0.53003  -0.52673  -0.51253  -0.50963
 Alpha  occ. eigenvalues --   -0.49602  -0.48983  -0.46960  -0.46415  -0.44881
 Alpha  occ. eigenvalues --   -0.43581  -0.41491  -0.41011  -0.40635  -0.37501
 Alpha  occ. eigenvalues --   -0.34683  -0.34066  -0.33890  -0.32769  -0.32245
 Alpha  occ. eigenvalues --   -0.30522  -0.25718
 Alpha virt. eigenvalues --   -0.16885  -0.10599  -0.04096  -0.01885  -0.01447
 Alpha virt. eigenvalues --   -0.00882  -0.00444   0.00641   0.01772   0.02677
 Alpha virt. eigenvalues --    0.02831   0.04526   0.05209   0.05789   0.06093

 Mulliken charges:
               1
     1  C   -0.154548
     2  C    1.366566
     3  C   -0.926225
     4  C    0.041188
     5  C    0.241908
     6  C    0.021349
     7  O   -0.349875
     8  C    0.609164
     9  O   -0.428190
    10  C    0.428988
    11  O   -0.443147
    12  O   -0.287705
    13  N   -0.446195
    14  O   -0.033622
    15  O    0.072392
    16  H    0.240878
    17  H    0.166144
    18  O   -0.519840
    19  H    0.400769
 Sum of Mulliken charges =  -0.00000

 Dipole moment (field-independent basis, Debye):
    X=             -7.4508    Y=              1.2319    Z=              0.0036  Tot=              7.5520
 Quadrupole moment (field-independent basis, Debye-Ang):
   XX=            -85.7915   YY=           -105.8484   ZZ=            -86.0451
   XY=             -9.7693   XZ=             -0.0162   YZ=              0.0060

 Normal termination of Gaussian 16 at Wed Jul  2 11:35:40 2025.
