 Gaussian 16, Revision C.02,
 Gaussian 16:  ES64L-G16RevC.02  7-Dec-2021

 -----------------------------------------------------------
 # td=(50-50,nstates=3) b3lyp/6-31++g(d,p) geom=connectivity
 -----------------------------------------------------------

 -------------------
 Title Card Required
 -------------------
 Symbolic Z-matrix:
 Charge =  0 Multiplicity = 1

                         Standard orientation:
 ---------------------------------------------------------------------
 Center     Atomic      Atomic             Coordinates (Angstroms)
 Number     Number       Type             X           Y           Z
 ---------------------------------------------------------------------
      1          6           0        1.636473    0.142929   -0.000043
      2          6           0        0.272479    0.264364    0.000088
      3          6           0       -0.753278   -0.742971    0.000445
      4          1           0       -0.630822   -1.814545    0.000688
      5          6           0       -1.921957   -0.060859   -0.000081
      6          6           0        2.667267    1.138830   -0.000193
      7          1           0        2.529688    2.209224   -0.000381
      8          6           0        3.846309    0.468684   -0.000101
      9          1           0        4.865531    0.828726   -0.000202
     10          8           0       -1.810465    1.296444   -0.000078
     11          6           0       -0.432919    1.579670    0.000080
     12          8           0       -0.017463    2.706452    0.000315
     13          6           0        2.344876   -1.179653    0.000053
     14          8           0        1.923902   -2.303891    0.000244
     15          8           0        3.714968   -0.896656   -0.000274
     16          7           0       -3.262986   -0.601062   -0.000160
     17          8           0       -4.198063    0.194890   -0.000168
     18          8           0       -3.347753   -1.832482   -0.000098
 ---------------------------------------------------------------------

 SCF Done:  E(RB3LYP) =  -812.642774971     A.U. after   16 cycles

 Excitation energies and oscillator strengths:

 Excited State   1:      Triplet-A      0.9437 eV 1313.79 nm  f=0.0000  <S**2>=2.000
      53 -> 54         0.73324
      53 <- 54         0.23251
 This state for optimization and/or second-order correction.
 Total Energy, E(TD-HF/TD-DFT) =  -812.608094169
 Copying the excited state density for this state as the 1-particle RhoCI density.

 Excited State   2:      Triplet-A      2.4299 eV  510.25 nm  f=0.0000  <S**2>=2.000
      48 -> 54         0.46791
      48 -> 55         0.43445
      48 -> 60         0.10870
      51 -> 54         0.27677
      51 -> 55         0.13697
      53 -> 55         0.11546
      48 <- 55         0.13552

 Excited State   3:      Singlet-A      2.7374 eV  452.93 nm  f=0.4139  <S**2>=0.000
      53 -> 54         0.71035
      53 <- 54        -0.14019

 Excited State   4:      Triplet-A      2.7985 eV  443.04 nm  f=0.0000  <S**2>=2.000
      48 -> 54        -0.26994
      48 -> 55        -0.14850
      51 -> 54         0.53803
      53 -> 55         0.30969

 Excited State   5:      Singlet-A      3.1795 eV  389.95 nm  f=0.0000  <S**2>=0.000
      50 -> 55         0.11085
      52 -> 54         0.66738
      52 -> 55         0.19325

 Excited State   6:      Singlet-A      3.3014 eV  375.55 nm  f=0.0000  <S**2>=0.000
      49 -> 54         0.10421
      50 -> 54         0.68200
      52 -> 55         0.12860

 The electronic state is 1-A.
 Alpha  occ. eigenvalues --  -19.26526 -19.26458 -19.22132 -19.21811 -19.21129
 Alpha  occ. eigenvalues --  -19.20494 -14.61160 -10.37957 -10.37670 -10.34975
 Alpha  occ. eigenvalues --  -10.32038 -10.28779 -10.28315 -10.26432 -10.25065
 Alpha  occ. eigenvalues --   -1.26325  -1.17671  -1.17489  -1.09886  -1.09729
 Alpha  occ. eigenvalues --   -1.08876  -0.90795  -0.86699  -0.83772  -0.78234
 Alpha  occ. eigenvalues --   -0.72248  -0.68477  -0.66021  -0.61454  -0.60045
 Alpha  occ. eigenvalues --   -0.58842  -0.57463  -0.55794  -0.53541  -0.52702
 Alpha  occ. eigenvalues --   -0.52035  -0.51400  -0.50913  -0.48632  -0.48591
 Alpha  occ. eigenvalues --   -0.46652  -0.45059  -0.43285  -0.41669  -0.41423
 Alpha  occ. eigenvalues --   -0.39280  -0.35030  -0.34364  -0.34273  -0.33254
 Alpha  occ. eigenvalues --   -0.32668  -0.32625  -0.27059
 Alpha virt. eigenvalues --   -0.17128  -0.10940  -0.03111  -0.02033  -0.01961
 Alpha virt. eigenvalues --   -0.00829   0.00070   0.00844   0.01889   0.02593
 Alpha virt. eigenvalues --    0.02834   0.04511   0.04722   0.05736   0.06323

 Mulliken charges:
               1
     1  C    0.336554
     2  C    1.004415
     3  C   -0.933469
     4  H    0.230539
     5  C    0.048820
     6  C   -0.406422
     7  H    0.193724
     8  C   -0.143144
     9  H    0.171407
    10  O   -0.350495
    11  C    0.758926
    12  O   -0.465502
    13  C    0.659657
    14  O   -0.444503
    15  O   -0.260072
    16  N   -0.424651
    17  O    0.059903
    18  O   -0.035685
 Sum of Mulliken charges =  -0.00000

 Dipole moment (field-independent basis, Debye):
    X=              5.9015    Y=              1.3431    Z=             -0.0003  Tot=              6.0524
 Quadrupole moment (field-independent basis, Debye-Ang):
   XX=            -88.6085   YY=            -98.6324   ZZ=            -80.7105
   XY=              8.3341   XZ=             -0.0016   YZ=             -0.0024

 Normal termination of Gaussian 16 at Tue Jul  1 15:44:45 2025.
