 Gaussian 16, Revision C.02,
 Gaussian 16:  ES64L-G16RevC.02  7-Dec-2021

 -----------------------------------------------------------
 # td=(50-50,nstates=3) b3lyp/6-31++g(d,p) geom=connectivity
 -----------------------------------------------------------

 -------------------
 Title Card Required
 -------------------
 Symbolic Z-matrix:
 Charge =  0 Multiplicity = 1

                         Standard orientation:
 ---------------------------------------------------------------------
 Center     Atomic      Atomic             Coordinates (Angstroms)
 Number     Number       Type             X           Y           Z
 ---------------------------------------------------------------------
      1          6           0        1.277554    0.024861   -0.000034
      2          6           0       -0.086704    0.204612    0.000006
      3          6           0       -1.157079   -0.751548   -0.000186
      4          6           0       -2.294646   -0.015557   -0.000097
      5          6           0        2.338985    0.971510    0.000164
      6          6           0        3.494877    0.242236    0.000002
      7          8           0       -2.110955    1.335012   -0.000010
      8          6           0       -0.721117    1.546711    0.000046
      9          8           0       -0.246661    2.653092    0.000051
     10          6           0        1.912396   -1.329591   -0.000038
     11          8           0        1.460490   -2.436360   -0.000075
     12          8           0        3.317182   -1.110068    0.000052
     13          7           0       -3.654279   -0.488938    0.000037
     14          8           0       -3.801442   -1.716538    0.000362
     15          8           0       -4.553429    0.349581   -0.000229
     16          1           0       -1.090516   -1.827977   -0.000498
     17          1           0        2.257511    2.046712    0.000460
     18          8           0        4.743503    0.666559   -0.000112
     19          1           0        5.357863   -0.085799    0.000307
 ---------------------------------------------------------------------

 SCF Done:  E(RB3LYP) =  -887.880576837     A.U. after   16 cycles

 Excitation energies and oscillator strengths:

 Excited State   1:      Triplet-A      0.9644 eV 1285.67 nm  f=0.0000  <S**2>=2.000
      57 -> 58         0.72875
      57 <- 58         0.20761
 This state for optimization and/or second-order correction.
 Total Energy, E(TD-HF/TD-DFT) =  -887.845137370
 Copying the excited state density for this state as the 1-particle RhoCI density.

 Excited State   2:      Triplet-A      2.4888 eV  498.16 nm  f=0.0000  <S**2>=2.000
      53 -> 58         0.44118
      53 -> 59        -0.42584
      53 -> 64        -0.10561
      55 -> 58         0.29299
      55 -> 59        -0.17520
      57 -> 59        -0.14413
      53 <- 59        -0.12771

 Excited State   3:      Singlet-A      2.6629 eV  465.60 nm  f=0.4692  <S**2>=0.000
      57 -> 58         0.71449
      57 <- 58        -0.14900

 Excited State   4:      Triplet-A      2.8291 eV  438.24 nm  f=0.0000  <S**2>=2.000
      53 -> 58         0.26514
      53 -> 59        -0.16869
      55 -> 58        -0.35844
      57 -> 59         0.50610

 Excited State   5:      Singlet-A      3.2148 eV  385.67 nm  f=0.0000  <S**2>=0.000
      54 -> 59         0.10487
      56 -> 58         0.65983
      56 -> 59        -0.22233

 Excited State   6:      Singlet-A      3.4684 eV  357.47 nm  f=0.0000  <S**2>=0.000
      54 -> 58         0.68042
      56 -> 59         0.13050

 The electronic state is 1-A.
 Alpha  occ. eigenvalues --  -19.28151 -19.27833 -19.25421 -19.22096 -19.21060
 Alpha  occ. eigenvalues --  -19.20721 -19.19127 -14.60102 -10.38990 -10.38978
 Alpha  occ. eigenvalues --  -10.36385 -10.33652 -10.28756 -10.26991 -10.25592
 Alpha  occ. eigenvalues --  -10.24676  -1.25199  -1.20855  -1.16459  -1.15309
 Alpha  occ. eigenvalues --   -1.10509  -1.08384  -1.07683  -0.90534  -0.86315
 Alpha  occ. eigenvalues --   -0.83322  -0.77946  -0.71959  -0.68307  -0.67238
 Alpha  occ. eigenvalues --   -0.65549  -0.61114  -0.58634  -0.56843  -0.56420
 Alpha  occ. eigenvalues --   -0.55043  -0.53311  -0.52835  -0.50939  -0.50550
 Alpha  occ. eigenvalues --   -0.49464  -0.49158  -0.47646  -0.47575  -0.46757
 Alpha  occ. eigenvalues --   -0.45527  -0.43114  -0.40462  -0.40257  -0.38676
 Alpha  occ. eigenvalues --   -0.35270  -0.33700  -0.33397  -0.32533  -0.31937
 Alpha  occ. eigenvalues --   -0.31586  -0.25554
 Alpha virt. eigenvalues --   -0.16056  -0.10131  -0.04569  -0.02568  -0.01141
 Alpha virt. eigenvalues --   -0.01031   0.00928   0.01011   0.01696   0.02836
 Alpha virt. eigenvalues --    0.03200   0.04223   0.04841   0.05318   0.06106

 Mulliken charges:
               1
     1  C    0.492460
     2  C    0.938179
     3  C   -0.959803
     4  C    0.073557
     5  C   -0.471068
     6  C    0.171406
     7  O   -0.352604
     8  C    0.759631
     9  O   -0.480789
    10  C    0.712476
    11  O   -0.457157
    12  O   -0.367576
    13  N   -0.450248
    14  O   -0.038924
    15  O    0.056479
    16  H    0.222373
    17  H    0.216182
    18  O   -0.475069
    19  H    0.410494
 Sum of Mulliken charges =  -0.00000

 Dipole moment (field-independent basis, Debye):
    X=              8.4983    Y=             -0.7189    Z=              0.0005  Tot=              8.5287
 Quadrupole moment (field-independent basis, Debye-Ang):
   XX=            -87.5406   YY=           -106.1685   ZZ=            -86.0364
   XY=             -1.0747   XZ=              0.0053   YZ=              0.0026

 Normal termination of Gaussian 16 at Tue Jul  1 15:47:55 2025.
