 Gaussian 16, Revision C.02,
 Gaussian 16:  ES64L-G16RevC.02  7-Dec-2021

 -----------------------------------------------------------
 # td=(50-50,nstates=3) b3lyp/6-31++g(d,p) geom=connectivity
 -----------------------------------------------------------

 -------------------
 Title Card Required
 -------------------
 Symbolic Z-matrix:
 Charge =  0 Multiplicity = 1

                         Standard orientation:
 ---------------------------------------------------------------------
 Center     Atomic      Atomic             Coordinates (Angstroms)
 Number     Number       Type             X           Y           Z
 ---------------------------------------------------------------------
      1          6           0       -1.106767    0.291252    0.048287
      2          6           0        0.221899    0.624133    0.048759
      3          6           0        1.446146   -0.135783   -0.050037
      4          6           0        2.474487    0.737568   -0.202799
      5          6           0       -2.251752    1.125460    0.279618
      6          1           0       -2.244545    2.175264    0.527640
      7          6           0       -3.340000    0.322706    0.181874
      8          1           0       -4.389468    0.536503    0.329321
      9          8           0        2.067621    2.029410   -0.216303
     10          6           0        0.665244    2.044661   -0.009510
     11          8           0        0.059350    3.079099    0.046048
     12          6           0       -1.660576   -1.061928   -0.302147
     13          8           0       -1.135444   -2.043659   -0.741965
     14          8           0       -3.052936   -0.972762   -0.148661
     15          1           0        3.537665    0.553563   -0.258898
     16          7           0        1.695562   -1.530365    0.248159
     17          8           0        2.681777   -2.048188   -0.282390
     18          8           0        0.946549   -2.074050    1.055841
 ---------------------------------------------------------------------

 SCF Done:  E(RB3LYP) =  -812.634542071     A.U. after   17 cycles

 Excitation energies and oscillator strengths:

 Excited State   1:      Triplet-A      1.0935 eV 1133.78 nm  f=0.0000  <S**2>=2.000
      53 -> 54         0.72722
      53 <- 54         0.20967
 This state for optimization and/or second-order correction.
 Total Energy, E(TD-HF/TD-DFT) =  -812.594355018
 Copying the excited state density for this state as the 1-particle RhoCI density.

 Excited State   2:      Triplet-A      2.7683 eV  447.88 nm  f=0.0000  <S**2>=2.000
      48 -> 55        -0.24231
      49 -> 54        -0.10723
      49 -> 55        -0.16404
      50 -> 54        -0.11066
      51 -> 55        -0.14357
      52 -> 54        -0.33721
      52 -> 55        -0.19931
      53 -> 55         0.44540

 Excited State   3:      Singlet-A      2.8585 eV  433.73 nm  f=0.2392  <S**2>=0.000
      51 -> 54        -0.12028
      53 -> 54         0.68817
      53 <- 54        -0.12326

 Excited State   4:      Triplet-A      2.8715 eV  431.78 nm  f=0.0000  <S**2>=2.000
      48 -> 55         0.37716
      49 -> 55         0.30306
      51 -> 55         0.36036
      52 -> 54        -0.27779
      53 -> 55         0.14073

 Excited State   5:      Singlet-A      3.3452 eV  370.63 nm  f=0.0276  <S**2>=0.000
      48 -> 54        -0.14267
      51 -> 54         0.31654
      52 -> 54         0.58572
      53 -> 54         0.13487

 Excited State   6:      Singlet-A      3.4854 eV  355.73 nm  f=0.0037  <S**2>=0.000
      48 -> 54        -0.13369
      51 -> 54         0.57416
      52 -> 54        -0.35242
      53 -> 55        -0.12129

 The electronic state is 1-A.
 Alpha  occ. eigenvalues --  -19.26887 -19.25495 -19.21335 -19.21024 -19.20513
 Alpha  occ. eigenvalues --  -19.20111 -14.60365 -10.37605 -10.36952 -10.32609
 Alpha  occ. eigenvalues --  -10.31231 -10.29226 -10.28289 -10.28217 -10.24259
 Alpha  occ. eigenvalues --   -1.25330  -1.17628  -1.16552  -1.09678  -1.08995
 Alpha  occ. eigenvalues --   -1.08069  -0.91094  -0.86693  -0.80663  -0.76322
 Alpha  occ. eigenvalues --   -0.74967  -0.68972  -0.64485  -0.60974  -0.59671
 Alpha  occ. eigenvalues --   -0.57645  -0.56382  -0.55607  -0.53843  -0.52543
 Alpha  occ. eigenvalues --   -0.52426  -0.51079  -0.49897  -0.49183  -0.47492
 Alpha  occ. eigenvalues --   -0.46369  -0.44904  -0.42729  -0.41785  -0.40742
 Alpha  occ. eigenvalues --   -0.38503  -0.34532  -0.33918  -0.33496  -0.33076
 Alpha  occ. eigenvalues --   -0.32316  -0.31107  -0.26428
 Alpha virt. eigenvalues --   -0.15713  -0.10854  -0.02511  -0.01995  -0.01540
 Alpha virt. eigenvalues --   -0.01268  -0.00537   0.00825   0.01569   0.02907
 Alpha virt. eigenvalues --    0.03476   0.04093   0.04990   0.05509   0.06226

 Mulliken charges:
               1
     1  C    0.350706
     2  C    0.886771
     3  C   -0.700914
     4  C    0.171614
     5  C    0.182789
     6  H    0.192216
     7  C   -0.158362
     8  H    0.168443
     9  O   -0.274593
    10  C    0.170343
    11  O   -0.449781
    12  C    0.218887
    13  O   -0.400814
    14  O   -0.264673
    15  H    0.217152
    16  N   -0.265489
    17  O   -0.010740
    18  O   -0.033555
 Sum of Mulliken charges =  -0.00000

 Dipole moment (field-independent basis, Debye):
    X=             -1.8312    Y=              3.5556    Z=              0.5002  Tot=              4.0306
 Quadrupole moment (field-independent basis, Debye-Ang):
   XX=            -67.8515   YY=           -105.5877   ZZ=            -83.7123
   XY=             -0.2115   XZ=             -2.0099   YZ=              0.2180

 Normal termination of Gaussian 16 at Tue Jul  1 15:49:07 2025.
